ATOM   3030  C1  AQ4 A 999      29.552  -1.989  53.496  1.00  0.00     0.010 C 
ATOM   3031  C2  AQ4 A 999      28.841  -1.022  53.432  1.00  0.00    -0.070 C 
ATOM   3032  C3  AQ4 A 999      27.989   0.094  53.366  1.00  0.00     0.026 A 
ATOM   3033  C4  AQ4 A 999      26.606  -0.119  53.323  1.00  0.00     0.043 A 
ATOM   3034  C5  AQ4 A 999      25.725   0.972  53.258  1.00  0.00     0.041 A 
ATOM   3035  N1  AQ4 A 999      24.289   0.712  53.215  1.00  0.00    -0.340 N 
ATOM   3036  H3  AQ4 A 999      23.790   1.318  52.549  1.00  0.00     0.168 HD
ATOM   3037  C6  AQ4 A 999      23.410  -0.217  53.908  1.00  0.00     0.141 A 
ATOM   3038  C7  AQ4 A 999      22.037  -0.309  53.572  1.00  0.00     0.047 A 
ATOM   3039 C18  AQ4 A 999      21.199  -1.222  54.264  1.00  0.00     0.080 A 
ATOM   3040  N2  AQ4 A 999      21.747  -2.039  55.319  1.00  0.00    -0.236 NA
ATOM   3041 C19  AQ4 A 999      23.117  -1.934  55.642  1.00  0.00     0.224 A 
ATOM   3042  N3  AQ4 A 999      23.943  -1.023  54.940  1.00  0.00    -0.219 NA
ATOM   3043 C17  AQ4 A 999      19.845  -1.318  53.942  1.00  0.00     0.079 A 
ATOM   3044 C13  AQ4 A 999      19.301  -0.535  52.923  1.00  0.00     0.163 A 
ATOM   3045  O3  AQ4 A 999      17.828  -0.679  52.597  1.00  0.00    -0.487 OA
ATOM   3046 C14  AQ4 A 999      17.227   0.601  52.220  1.00  0.00     0.258 C 
ATOM   3047 C15  AQ4 A 999      15.703   0.494  52.066  1.00  0.00     0.201 C 
ATOM   3048  O4  AQ4 A 999      15.108   0.167  53.335  1.00  0.00    -0.381 OA
ATOM   3049 C16  AQ4 A 999      13.843  -0.695  53.221  1.00  0.00     0.195 C 
ATOM   3050  C9  AQ4 A 999      20.143   0.376  52.218  1.00  0.00     0.162 A 
ATOM   3051  O1  AQ4 A 999      19.589   1.220  51.120  1.00  0.00    -0.488 OA
ATOM   3052 C10  AQ4 A 999      20.550   1.362  50.041  1.00  0.00     0.258 C 
ATOM   3053 C11  AQ4 A 999      20.235   2.645  49.262  1.00  0.00     0.201 C 
ATOM   3054  O2  AQ4 A 999      18.990   2.485  48.543  1.00  0.00    -0.381 OA
ATOM   3055 C12  AQ4 A 999      17.712   2.618  49.399  1.00  0.00     0.195 C 
ATOM   3056  C8  AQ4 A 999      21.501   0.476  52.546  1.00  0.00     0.064 A 
ATOM   3057 C20  AQ4 A 999      26.234   2.292  53.236  1.00  0.00     0.026 A 
ATOM   3058 C21  AQ4 A 999      27.625   2.509  53.279  1.00  0.00     0.003 A 
ATOM   3059 C22  AQ4 A 999      28.508   1.410  53.344  1.00  0.00     0.017 A 
