REMARK SMILES C#Cc1cccc(Nc2ncnc3cc(OCCOC)c(OCCOC)cc23)c1
REMARK SMILES IDX 15 1 14 2 13 3 12 4 11 5 10 6 9 7 28 8 27 9 21 10 16 11
REMARK SMILES IDX 17 12 18 13 19 14 20 15 22 16 23 17 24 18 25 19 26 20 8 21
REMARK SMILES IDX 7 23 6 24 29 25 5 26 3 27 4 28 2 29 1 30
REMARK H PARENT 8 22
ROOT
ATOM      1  C   UNL     1      -2.086   0.545   0.064  1.00  0.00     0.163 A 
ATOM      2  C   UNL     1      -1.719   1.105   1.291  1.00  0.00     0.079 A 
ATOM      3  C   UNL     1      -0.436   0.968   1.816  1.00  0.00     0.080 A 
ATOM      4  N   UNL     1      -0.175   1.532   2.995  1.00  0.00    -0.236 NA
ATOM      5  C   UNL     1       1.063   1.377   3.476  1.00  0.00     0.224 A 
ATOM      6  N   UNL     1       2.066   0.727   2.881  1.00  0.00    -0.219 NA
ATOM      7  C   UNL     1       1.806   0.173   1.686  1.00  0.00     0.141 A 
ATOM      8  C   UNL     1       0.528   0.254   1.094  1.00  0.00     0.047 A 
ATOM      9  C   UNL     1       0.163  -0.331  -0.140  1.00  0.00     0.064 A 
ATOM     10  C   UNL     1      -1.133  -0.201  -0.636  1.00  0.00     0.162 A 
ENDROOT
BRANCH   1  11
ATOM     11  O   UNL     1      -3.318   0.667  -0.515  1.00  0.00    -0.487 OA
BRANCH  11  12
ATOM     12  C   UNL     1      -4.221   1.663  -0.038  1.00  0.00     0.258 C 
BRANCH  12  13
ATOM     13  C   UNL     1      -3.861   3.052  -0.559  1.00  0.00     0.201 C 
BRANCH  13  14
ATOM     14  O   UNL     1      -4.823   3.995  -0.088  1.00  0.00    -0.381 OA
ATOM     15  C   UNL     1      -4.539   5.308  -0.555  1.00  0.00     0.195 C 
ENDBRANCH  13  14
ENDBRANCH  12  13
ENDBRANCH  11  12
ENDBRANCH   1  11
BRANCH  10  16
ATOM     16  O   UNL     1      -1.358  -0.761  -1.867  1.00  0.00    -0.487 OA
BRANCH  16  17
ATOM     17  C   UNL     1      -2.342  -1.807  -1.824  1.00  0.00     0.258 C 
BRANCH  17  18
ATOM     18  C   UNL     1      -2.083  -2.763  -2.991  1.00  0.00     0.201 C 
BRANCH  18  19
ATOM     19  O   UNL     1      -2.327  -2.154  -4.267  1.00  0.00    -0.381 OA
ATOM     20  C   UNL     1      -3.702  -2.150  -4.636  1.00  0.00     0.195 C 
ENDBRANCH  18  19
ENDBRANCH  17  18
ENDBRANCH  16  17
ENDBRANCH  10  16
BRANCH   7  21
ATOM     21  N   UNL     1       2.836  -0.522   0.995  1.00  0.00    -0.340 N 
ATOM     22  H   UNL     1       2.899  -0.167   0.044  1.00  0.00     0.168 HD
BRANCH  21  23
ATOM     23  C   UNL     1       4.092  -0.963   1.469  1.00  0.00     0.041 A 
ATOM     24  C   UNL     1       4.340  -1.261   2.814  1.00  0.00     0.026 A 
ATOM     25  C   UNL     1       5.100  -1.253   0.536  1.00  0.00     0.043 A 
ATOM     26  C   UNL     1       5.575  -1.770   3.229  1.00  0.00     0.003 A 
ATOM     27  C   UNL     1       6.335  -1.768   0.944  1.00  0.00     0.026 A 
ATOM     28  C   UNL     1       6.575  -2.018   2.295  1.00  0.00     0.017 A 
ATOM     29  C   UNL     1       7.343  -2.061  -0.028  1.00  0.00    -0.070 C 
ATOM     30  C   UNL     1       8.182  -2.325  -0.848  1.00  0.00     0.010 C 
ENDBRANCH  21  23
ENDBRANCH   7  21
TORSDOF 10
