REMARK SMILES C#Cc1cccc(Nc2ncnc3cc4c(cc23)OCCOCCOCCO4)c1
REMARK SMILES IDX 9 1 10 2 11 3 12 4 13 5 14 6 15 7 16 8 17 9 18 10 8 11 7 13
REMARK SMILES IDX 2 14 3 15 29 16 4 17 5 18 6 19 1 20 19 21 20 22 21 23 22 24
REMARK SMILES IDX 23 25 28 27 27 28 26 29 25 30 24 31
REMARK H PARENT 8 12
REMARK Flexibility Score:   24.900
ROOT
ATOM      1  C   UNL     1       1.990  -0.030   1.765  1.00  0.00    +0.141 A 
ATOM      2  N   UNL     1       2.275  -0.505   3.005  1.00  0.00    -0.219 NA
ATOM      3  C   UNL     1       1.383  -0.436   4.027  1.00  0.00    +0.224 A 
ATOM      4  N   UNL     1       0.169   0.128   3.828  1.00  0.00    -0.236 NA
ATOM      5  C   UNL     1      -0.166   0.657   2.623  1.00  0.00    +0.080 A 
ATOM      6  C   UNL     1      -1.413   1.267   2.468  1.00  0.00    +0.079 A 
ATOM      7  C   UNL     1      -1.756   1.884   1.255  1.00  0.00    +0.163 A 
ATOM      8  C   UNL     1      -0.859   1.866   0.176  1.00  0.00    +0.162 A 
ATOM      9  C   UNL     1       0.394   1.231   0.325  1.00  0.00    +0.064 A 
ATOM     10  C   UNL     1       0.751   0.624   1.548  1.00  0.00    +0.047 A 
ENDROOT
BRANCH   1  11
ATOM     11  N   UNL     1       2.957  -0.206   0.713  1.00  0.00    -0.340 N 
ATOM     12  H   UNL     1       3.119   0.569   0.034  1.00  0.00    +0.168 HD
BRANCH  11  13
ATOM     13  C   UNL     1       3.802  -1.370   0.611  1.00  0.00    +0.041 A 
ATOM     14  C   UNL     1       7.058  -2.342  -0.989  1.00  0.00    -0.070 C 
ATOM     15  C   UNL     1       5.835  -2.417  -0.234  1.00  0.00    +0.026 A 
ATOM     16  C   UNL     1       5.003  -1.294  -0.113  1.00  0.00    +0.043 A 
ATOM     17  C   UNL     1       5.470  -3.618   0.382  1.00  0.00    +0.017 A 
ATOM     18  C   UNL     1       4.267  -3.712   1.081  1.00  0.00    +0.003 A 
ATOM     19  C   UNL     1       3.426  -2.603   1.181  1.00  0.00    +0.026 A 
ATOM     20  C   UNL     1       8.082  -2.303  -1.620  1.00  0.00    +0.010 C 
ENDBRANCH  11  13
ENDBRANCH   1  11
BRANCH   8  21
ATOM     21  O   UNL     1      -1.231   2.497  -1.024  1.00  0.00    -0.487 OA
BRANCH  21  22
ATOM     22  C   UNL     1      -0.940   2.002  -2.336  1.00  0.00    +0.258 C 
BRANCH  22  23
ATOM     23  C   UNL     1      -2.027   1.024  -2.791  1.00  0.00    +0.201 C 
BRANCH  23  24
ATOM     24  O   UNL     1      -3.113   1.752  -3.335  1.00  0.00    -0.376 OA
BRANCH  24  25
ATOM     25  C   UNL     1      -4.322   1.011  -3.248  1.00  0.00    +0.188 CG0
ATOM     26  G   UNL     1      -5.155   1.461  -2.041  1.00  0.00    +0.000 G0
ENDBRANCH  24  25
ENDBRANCH  23  24
ENDBRANCH  22  23
ENDBRANCH  21  22
ENDBRANCH   8  21
BRANCH   7  27
ATOM     27  O   UNL     1      -3.002   2.499   1.094  1.00  0.00    -0.487 OA
BRANCH  27  28
ATOM     28  C   UNL     1      -4.231   1.868   1.471  1.00  0.00    +0.258 C 
BRANCH  28  29
ATOM     29  C   UNL     1      -5.138   1.743   0.254  1.00  0.00    +0.201 C 
BRANCH  29  30
ATOM     30  O   UNL     1      -4.342   1.498  -0.892  1.00  0.00    -0.376 OA
BRANCH  30  31
ATOM     31  C   UNL     1      -5.155   1.461  -2.041  1.00  0.00    +0.188 CG0
ATOM     32  G   UNL     1      -4.322   1.011  -3.248  1.00  0.00    +0.000 G0
ENDBRANCH  30  31
ENDBRANCH  29  30
ENDBRANCH  28  29
ENDBRANCH  27  28
ENDBRANCH   7  27
TORSDOF 2
