REMARK SMILES C=CC(=O)Nc1cc2c(Nc3ccc(F)c(Cl)c3)ncnc2cc1OCCCN1CCOCC1
REMARK SMILES IDX 25 1 24 2 6 3 7 4 23 5 8 6 22 7 9 8 21 9 19 10 20 11 5 12
REMARK SMILES IDX 3 13 4 14 2 16 1 17 10 18 11 20 18 21 12 22 16 23 13 24
REMARK SMILES IDX 14 25 17 26 15 27 26 28 27 29 28 30 29 31 30 32 34 33 31 34
REMARK SMILES IDX 33 35 32 36
REMARK H PARENT 5 15 10 19
ROOT
ATOM      1  O   UNL     1       1.188   0.269  -1.129  1.00  0.00    -0.491 OA
ENDROOT
BRANCH   1   2
ATOM      2  C   UNL     1      -0.058   0.153  -0.491  1.00  0.00    +0.145 A 
ATOM      3  C   UNL     1      -1.164  -0.308  -1.233  1.00  0.00    +0.084 A 
ATOM      4  C   UNL     1      -2.436  -0.346  -0.644  1.00  0.00    +0.044 A 
ATOM      5  C   UNL     1      -0.235   0.513   0.858  1.00  0.00    +0.077 A 
ATOM      6  C   UNL     1      -2.613   0.009   0.705  1.00  0.00    +0.045 A 
ATOM      7  C   UNL     1      -1.498   0.446   1.452  1.00  0.00    +0.080 A 
ATOM      8  C   UNL     1      -3.869  -0.025   1.351  1.00  0.00    +0.141 A 
ATOM      9  N   UNL     1      -1.652   0.818   2.749  1.00  0.00    -0.236 NA
ATOM     10  N   UNL     1      -3.955   0.359   2.655  1.00  0.00    -0.219 NA
ATOM     11  C   UNL     1      -2.867   0.779   3.349  1.00  0.00    +0.224 A 
BRANCH   3  12
ATOM     12  N   UNL     1      -1.026  -0.687  -2.612  1.00  0.00    -0.319 N 
ATOM     13  C   UNL     1      -0.020  -1.599  -3.078  1.00  0.00    +0.247 C 
ATOM     14  O   UNL     1       0.694  -2.233  -2.252  1.00  0.00    -0.270 OA
ATOM     15  H   UNL     1      -1.781  -0.405  -3.278  1.00  0.00    +0.170 HD
BRANCH  13  16
ATOM     16  C   UNL     1       0.151  -1.815  -4.526  1.00  0.00    +0.064 C 
ATOM     17  C   UNL     1       1.066  -2.647  -5.023  1.00  0.00    +0.014 C 
ENDBRANCH  13  16
ENDBRANCH   3  12
BRANCH   8  18
ATOM     18  N   UNL     1      -5.047  -0.506   0.682  1.00  0.00    -0.340 N 
ATOM     19  H   UNL     1      -4.956  -1.332   0.050  1.00  0.00    +0.168 HD
BRANCH  18  20
ATOM     20  C   UNL     1      -6.371  -0.023   0.972  1.00  0.00    +0.041 A 
ATOM     21  C   UNL     1      -7.477  -0.863   0.758  1.00  0.00    +0.049 A 
ATOM     22  C   UNL     1      -6.588   1.293   1.421  1.00  0.00    +0.029 A 
ATOM     23  C   UNL     1      -8.775  -0.408   1.020  1.00  0.00    +0.078 A 
ATOM     24  C   UNL     1      -7.884   1.746   1.680  1.00  0.00    +0.043 A 
ATOM     25  C   UNL     1      -8.978   0.897   1.485  1.00  0.00    +0.141 A 
ATOM     26 Cl   UNL     1     -10.142  -1.479   0.760  1.00  0.00    -0.081 Cl
ATOM     27  F   UNL     1     -10.232   1.347   1.742  1.00  0.00    -0.205 F 
ENDBRANCH  18  20
ENDBRANCH   8  18
ENDBRANCH   1   2
BRANCH   1  28
ATOM     28  C   UNL     1       2.383   0.721  -0.499  1.00  0.00    +0.231 C 
BRANCH  28  29
ATOM     29  C   UNL     1       3.523   0.716  -1.516  1.00  0.00    +0.057 C 
BRANCH  29  30
ATOM     30  C   UNL     1       4.823   1.270  -0.926  1.00  0.00    +0.088 C 
BRANCH  30  31
ATOM     31  N   UNL     1       5.321   0.367   0.137  1.00  0.00    -0.299 NA
ATOM     32  C   UNL     1       6.649  -0.189  -0.188  1.00  0.00    +0.113 C 
ATOM     33  C   UNL     1       5.358   1.030   1.452  1.00  0.00    +0.113 C 
ATOM     34  C   UNL     1       7.209  -1.000   0.998  1.00  0.00    +0.175 C 
ATOM     35  C   UNL     1       5.824   0.036   2.536  1.00  0.00    +0.175 C 
ATOM     36  O   UNL     1       6.219  -1.208   1.986  1.00  0.00    -0.379 OA
ENDBRANCH  30  31
ENDBRANCH  29  30
ENDBRANCH  28  29
ENDBRANCH   1  28
TORSDOF 9
