REMARK SMILES CCOc1cc2ncc(C#N)c(Nc3ccc(F)c(Cl)c3)c2cc1NC(=O)C=CCN(C)C
REMARK SMILES IDX 25 1 26 2 27 3 24 5 4 6 5 7 23 8 6 9 22 10 7 11 12 12 8 13
REMARK SMILES IDX 9 14 10 15 11 16 3 17 2 18 1 19 13 20 14 22 21 23 15 24
REMARK SMILES IDX 19 25 16 26 17 27 20 28 18 29 28 30 29 31 30 32 31 33 32 34
REMARK SMILES IDX 33 35
REMARK H PARENT 25 4 13 21
ROOT
ATOM      1  N   UNL     1      -1.714   1.057   1.352  1.00  0.00    -0.319 N 
ATOM      2  C   UNL     1      -2.609   0.213   0.610  1.00  0.00    +0.248 C 
ATOM      3  O   UNL     1      -2.408  -1.030   0.580  1.00  0.00    -0.270 OA
ATOM      4  H   UNL     1      -2.066   1.987   1.670  1.00  0.00    +0.170 HD
ENDROOT
BRANCH   1   5
ATOM      5  C   UNL     1      -0.419   0.619   1.799  1.00  0.00    +0.084 A 
ATOM      6  C   UNL     1       0.045   0.997   3.073  1.00  0.00    +0.144 A 
ATOM      7  C   UNL     1       1.319   0.573   3.497  1.00  0.00    +0.077 A 
ATOM      8  C   UNL     1       0.399  -0.148   0.953  1.00  0.00    +0.042 A 
ATOM      9  C   UNL     1       2.124  -0.207   2.661  1.00  0.00    +0.076 A 
ATOM     10  C   UNL     1       1.669  -0.575   1.376  1.00  0.00    +0.027 A 
ATOM     11  N   UNL     1       3.353  -0.603   3.089  1.00  0.00    -0.255 NA
ATOM     12  C   UNL     1       2.513  -1.346   0.547  1.00  0.00    +0.068 A 
ATOM     13  C   UNL     1       4.175  -1.356   2.316  1.00  0.00    +0.133 A 
ATOM     14  C   UNL     1       3.774  -1.748   1.034  1.00  0.00    +0.094 A 
ATOM     15  C   UNL     1       4.652  -2.576   0.244  1.00  0.00    +0.103 C 
ATOM     16  N   UNL     1       5.356  -3.240  -0.389  1.00  0.00    -0.192 NA
BRANCH   6  17
ATOM     17  O   UNL     1      -0.798   1.771   3.892  1.00  0.00    -0.492 OA
BRANCH  17  18
ATOM     18  C   UNL     1      -0.460   2.316   5.168  1.00  0.00    +0.226 C 
ATOM     19  C   UNL     1       0.442   3.534   5.012  1.00  0.00    +0.049 C 
ENDBRANCH  17  18
ENDBRANCH   6  17
BRANCH  12  20
ATOM     20  N   UNL     1       2.080  -1.742  -0.765  1.00  0.00    -0.354 N 
ATOM     21  H   UNL     1       1.230  -2.347  -0.833  1.00  0.00    +0.167 HD
BRANCH  20  22
ATOM     22  C   UNL     1       2.701  -1.280  -1.979  1.00  0.00    +0.040 A 
ATOM     23  C   UNL     1       2.340  -1.865  -3.204  1.00  0.00    +0.049 A 
ATOM     24  C   UNL     1       3.648  -0.237  -1.972  1.00  0.00    +0.029 A 
ATOM     25  C   UNL     1       2.925  -1.430  -4.399  1.00  0.00    +0.078 A 
ATOM     26  C   UNL     1       4.231   0.194  -3.167  1.00  0.00    +0.043 A 
ATOM     27  C   UNL     1       3.874  -0.401  -4.379  1.00  0.00    +0.141 A 
ATOM     28 Cl   UNL     1       2.463  -2.182  -5.917  1.00  0.00    -0.081 Cl
ATOM     29  F   UNL     1       4.448   0.027  -5.532  1.00  0.00    -0.205 F 
ENDBRANCH  20  22
ENDBRANCH  12  20
ENDBRANCH   1   5
BRANCH   2  30
ATOM     30  C   UNL     1      -3.774   0.826  -0.069  1.00  0.00    +0.068 C 
ATOM     31  C   UNL     1      -4.712   0.204  -0.805  1.00  0.00    -0.006 C 
BRANCH  31  32
ATOM     32  C   UNL     1      -4.793  -1.273  -1.133  1.00  0.00    +0.111 C 
BRANCH  32  33
ATOM     33  N   UNL     1      -4.246  -1.618  -2.466  1.00  0.00    -0.306 NA
ATOM     34  C   UNL     1      -4.915  -0.886  -3.554  1.00  0.00    +0.105 C 
ATOM     35  C   UNL     1      -2.785  -1.449  -2.538  1.00  0.00    +0.105 C 
ENDBRANCH  32  33
ENDBRANCH  31  32
ENDBRANCH   2  30
TORSDOF 8
