REMARK SMILES C#Cc1cccc(Nc2ncnc3cc(OCCOC)c(OCCOC)cc23)c1
REMARK SMILES IDX 21 1 15 2 14 3 13 4 28 5 27 6 9 7 10 8 11 9 12 10 22 11
REMARK SMILES IDX 23 12 24 13 25 14 26 15 16 16 17 17 18 18 19 19 20 20 8 21
REMARK SMILES IDX 7 23 6 24 29 25 5 26 3 27 4 28 2 29 1 30
REMARK H PARENT 8 22
ROOT
ATOM      1  C   UNL     1      -1.328  -0.282  -0.413  1.00  0.00    +0.162 A 
ATOM      2  C   UNL     1      -2.030   0.933  -0.429  1.00  0.00    +0.163 A 
ATOM      3  C   UNL     1      -1.366   2.128  -0.097  1.00  0.00    +0.079 A 
ATOM      4  C   UNL     1      -0.014   2.113   0.256  1.00  0.00    +0.080 A 
ATOM      5  C   UNL     1       0.698   0.896   0.290  1.00  0.00    +0.047 A 
ATOM      6  C   UNL     1       0.038  -0.296  -0.063  1.00  0.00    +0.064 A 
ATOM      7  C   UNL     1       2.062   0.938   0.655  1.00  0.00    +0.141 A 
ATOM      8  N   UNL     1       2.633   2.138   0.949  1.00  0.00    -0.219 NA
ATOM      9  C   UNL     1       1.928   3.296   0.896  1.00  0.00    +0.224 A 
ATOM     10  N   UNL     1       0.615   3.278   0.557  1.00  0.00    -0.236 NA
ENDROOT
BRANCH   1  11
ATOM     11  O   UNL     1      -2.028  -1.450  -0.763  1.00  0.00    -0.487 OA
BRANCH  11  12
ATOM     12  C   UNL     1      -1.520  -2.784  -0.694  1.00  0.00    +0.258 C 
BRANCH  12  13
ATOM     13  C   UNL     1      -1.469  -3.271   0.756  1.00  0.00    +0.201 C 
BRANCH  13  14
ATOM     14  O   UNL     1      -0.915  -4.572   0.813  1.00  0.00    -0.381 OA
ATOM     15  C   UNL     1      -1.938  -5.541   0.881  1.00  0.00    +0.195 C 
ENDBRANCH  13  14
ENDBRANCH  12  13
ENDBRANCH  11  12
ENDBRANCH   1  11
BRANCH   2  16
ATOM     16  O   UNL     1      -3.388   0.910  -0.783  1.00  0.00    -0.487 OA
BRANCH  16  17
ATOM     17  C   UNL     1      -4.230   2.059  -0.841  1.00  0.00    +0.258 C 
BRANCH  17  18
ATOM     18  C   UNL     1      -5.635   1.638  -1.260  1.00  0.00    +0.201 C 
BRANCH  18  19
ATOM     19  O   UNL     1      -6.463   2.776  -1.410  1.00  0.00    -0.381 OA
ATOM     20  C   UNL     1      -7.227   2.987  -0.243  1.00  0.00    +0.195 C 
ENDBRANCH  18  19
ENDBRANCH  17  18
ENDBRANCH  16  17
ENDBRANCH   2  16
BRANCH   7  21
ATOM     21  N   UNL     1       2.844  -0.262   0.784  1.00  0.00    -0.340 N 
ATOM     22  H   UNL     1       2.393  -1.104   1.207  1.00  0.00    +0.168 HD
BRANCH  21  23
ATOM     23  C   UNL     1       4.259  -0.314   0.531  1.00  0.00    +0.041 A 
ATOM     24  C   UNL     1       5.043  -1.277   1.186  1.00  0.00    +0.026 A 
ATOM     25  C   UNL     1       4.869   0.547  -0.401  1.00  0.00    +0.043 A 
ATOM     26  C   UNL     1       6.417  -1.357   0.941  1.00  0.00    +0.003 A 
ATOM     27  C   UNL     1       6.246   0.465  -0.646  1.00  0.00    +0.026 A 
ATOM     28  C   UNL     1       7.019  -0.487   0.030  1.00  0.00    +0.017 A 
ATOM     29  C   UNL     1       6.864   1.351  -1.597  1.00  0.00    -0.070 C 
ATOM     30  C   UNL     1       7.381   2.094  -2.393  1.00  0.00    +0.010 C 
ENDBRANCH  21  23
ENDBRANCH   7  21
TORSDOF 10
