REMARK SMILES CS(=O)(=O)CCNCc1ccc(-c2ccc3ncnc(Nc4ccc(OCc5cccc(F)c5)c(Cl)c4)c3c2)o1
REMARK SMILES IDX 13 1 39 2 38 3 16 4 15 5 14 6 17 7 18 8 19 9 20 10 12 11
REMARK SMILES IDX 9 12 10 13 40 14 11 15 8 16 7 17 6 19 5 20 2 21 3 22 4 23
REMARK SMILES IDX 1 24 21 25 22 27 37 28 23 29 35 30 24 31 25 32 36 33 26 34
REMARK SMILES IDX 27 35 28 36 34 37 29 38 32 39 30 40 31 41 33 42
REMARK H PARENT 7 18 21 26
ROOT
ATOM      1  C   UNL     1       1.842  -0.383  -1.198  1.00  0.00    +0.018 A 
ATOM      2  C   UNL     1       0.498  -0.010  -1.391  1.00  0.00    +0.026 A 
ATOM      3  C   UNL     1      -0.323  -0.723  -2.288  1.00  0.00    +0.044 A 
ATOM      4  C   UNL     1       0.208  -1.844  -2.964  1.00  0.00    +0.076 A 
ATOM      5  C   UNL     1       1.541  -2.214  -2.771  1.00  0.00    +0.030 A 
ATOM      6  C   UNL     1       2.354  -1.486  -1.902  1.00  0.00    +0.014 A 
ATOM      7  N   UNL     1      -0.575  -2.566  -3.804  1.00  0.00    -0.236 NA
ATOM      8  C   UNL     1      -1.872  -2.229  -4.013  1.00  0.00    +0.224 A 
ATOM      9  N   UNL     1      -2.403  -1.148  -3.390  1.00  0.00    -0.219 NA
ATOM     10  C   UNL     1      -1.673  -0.383  -2.533  1.00  0.00    +0.141 A 
ENDROOT
BRANCH   1  11
ATOM     11  C   UNL     1       2.730   0.367  -0.279  1.00  0.00    +0.134 A 
ATOM     12  C   UNL     1       4.525   0.973   0.705  1.00  0.00    +0.118 A 
ATOM     13  C   UNL     1       3.528   1.770   1.230  1.00  0.00    +0.047 A 
ATOM     14  O   UNL     1       4.022   0.145  -0.182  1.00  0.00    -0.460 OA
ATOM     15  C   UNL     1       2.368   1.385   0.594  1.00  0.00    +0.051 A 
BRANCH  12  16
ATOM     16  C   UNL     1       5.969   1.009   1.085  1.00  0.00    +0.157 C 
BRANCH  16  17
ATOM     17  N   UNL     1       6.278  -0.132   1.956  1.00  0.00    -0.309 NA
ATOM     18  H   UNL     1       5.839   0.057   2.889  1.00  0.00    +0.123 HD
BRANCH  17  19
ATOM     19  C   UNL     1       7.728  -0.271   2.158  1.00  0.00    +0.097 C 
BRANCH  19  20
ATOM     20  C   UNL     1       8.323  -1.195   1.092  1.00  0.00    +0.152 C 
BRANCH  20  21
ATOM     21  S   UNL     1      10.090  -1.369   1.296  1.00  0.00    +0.148 S 
ATOM     22  O   UNL     1      10.587  -2.437   0.364  1.00  0.00    -0.229 OA
ATOM     23  O   UNL     1      10.408  -1.762   2.712  1.00  0.00    -0.229 OA
ATOM     24  C   UNL     1      10.908   0.164   0.907  1.00  0.00    +0.158 C 
ENDBRANCH  20  21
ENDBRANCH  19  20
ENDBRANCH  17  19
ENDBRANCH  16  17
ENDBRANCH  12  16
ENDBRANCH   1  11
BRANCH  10  25
ATOM     25  N   UNL     1      -2.270   0.793  -1.957  1.00  0.00    -0.340 N 
ATOM     26  H   UNL     1      -1.681   1.650  -1.861  1.00  0.00    +0.168 HD
BRANCH  25  27
ATOM     27  C   UNL     1      -3.680   0.924  -1.705  1.00  0.00    +0.041 A 
ATOM     28  C   UNL     1      -4.270   2.195  -1.733  1.00  0.00    +0.050 A 
ATOM     29  C   UNL     1      -4.474  -0.190  -1.382  1.00  0.00    +0.030 A 
ATOM     30  C   UNL     1      -5.636   2.352  -1.475  1.00  0.00    +0.085 A 
ATOM     31  C   UNL     1      -5.839  -0.036  -1.123  1.00  0.00    +0.050 A 
ATOM     32  C   UNL     1      -6.434   1.239  -1.168  1.00  0.00    +0.138 A 
ATOM     33 Cl   UNL     1      -6.339   3.962  -1.529  1.00  0.00    -0.080 Cl
BRANCH  32  34
ATOM     34  O   UNL     1      -7.802   1.439  -0.915  1.00  0.00    -0.487 OA
BRANCH  34  35
ATOM     35  C   UNL     1      -8.714   0.440  -0.460  1.00  0.00    +0.265 C 
BRANCH  35  36
ATOM     36  C   UNL     1      -8.419   0.058   0.965  1.00  0.00    -0.008 A 
ATOM     37  C   UNL     1      -8.332   1.049   1.956  1.00  0.00    +0.046 A 
ATOM     38  C   UNL     1      -8.257  -1.291   1.324  1.00  0.00    +0.007 A 
ATOM     39  C   UNL     1      -8.071   0.698   3.284  1.00  0.00    +0.123 A 
ATOM     40  C   UNL     1      -7.995  -1.638   2.653  1.00  0.00    +0.003 A 
ATOM     41  C   UNL     1      -7.901  -0.645   3.632  1.00  0.00    +0.039 A 
ATOM     42  F   UNL     1      -7.984   1.660   4.236  1.00  0.00    -0.207 F 
ENDBRANCH  35  36
ENDBRANCH  34  35
ENDBRANCH  32  34
ENDBRANCH  25  27
ENDBRANCH  10  25
TORSDOF 11
