REMARK SMILES C=CC(=O)N1CCC(Oc2cc3c(Nc4ccc(Cl)c(Cl)c4F)ncnc3cc2OC)CC1
REMARK SMILES IDX 29 1 10 2 11 3 12 4 27 5 28 6 26 7 25 8 24 9 13 10 30 11
REMARK SMILES IDX 31 12 9 13 8 14 7 15 32 16 6 17 33 18 5 19 3 20 4 21 2 22
REMARK SMILES IDX 1 23 14 24 15 26 22 27 16 28 20 29 17 30 18 31 23 32 21 33
REMARK SMILES IDX 19 34
REMARK H PARENT 14 25
ROOT
ATOM      1  C   UNL     1      -0.193  -0.232  -1.886  1.00  0.00    +0.162 A 
ATOM      2  C   UNL     1       0.123   0.177  -0.564  1.00  0.00    +0.162 A 
ATOM      3  C   UNL     1       1.436   0.038  -0.094  1.00  0.00    +0.064 A 
ATOM      4  C   UNL     1       2.439  -0.533  -0.894  1.00  0.00    +0.047 A 
ATOM      5  C   UNL     1       2.121  -0.938  -2.206  1.00  0.00    +0.080 A 
ATOM      6  C   UNL     1       0.820  -0.792  -2.690  1.00  0.00    +0.079 A 
ATOM      7  N   UNL     1       3.083  -1.461  -3.009  1.00  0.00    -0.236 NA
ATOM      8  C   UNL     1       4.357  -1.606  -2.570  1.00  0.00    +0.224 A 
ATOM      9  N   UNL     1       4.688  -1.234  -1.308  1.00  0.00    -0.219 NA
ATOM     10  C   UNL     1       3.771  -0.701  -0.455  1.00  0.00    +0.141 A 
ENDROOT
BRANCH   1  11
ATOM     11  O   UNL     1      -1.493  -0.060  -2.385  1.00  0.00    -0.493 OA
ATOM     12  C   UNL     1      -1.934  -0.462  -3.677  1.00  0.00    +0.278 C 
ENDBRANCH   1  11
BRANCH   2  13
ATOM     13  O   UNL     1      -0.803   0.744   0.336  1.00  0.00    -0.486 OA
BRANCH  13  14
ATOM     14  C   UNL     1      -2.231   0.708   0.269  1.00  0.00    +0.177 C 
ATOM     15  C   UNL     1      -2.744  -0.733   0.420  1.00  0.00    +0.067 C 
ATOM     16  C   UNL     1      -2.806   1.612   1.382  1.00  0.00    +0.067 C 
ATOM     17  C   UNL     1      -4.269  -0.755   0.253  1.00  0.00    +0.123 C 
ATOM     18  C   UNL     1      -4.134   1.104   1.977  1.00  0.00    +0.123 C 
ATOM     19  N   UNL     1      -4.917   0.350   0.982  1.00  0.00    -0.339 N 
ATOM     20  C   UNL     1      -6.324   0.633   0.790  1.00  0.00    +0.245 C 
ATOM     21  O   UNL     1      -6.824   1.679   1.289  1.00  0.00    -0.270 OA
BRANCH  20  22
ATOM     22  C   UNL     1      -7.200  -0.280   0.016  1.00  0.00    +0.063 C 
ATOM     23  C   UNL     1      -8.479   0.000  -0.233  1.00  0.00    +0.014 C 
ENDBRANCH  20  22
ENDBRANCH  13  14
ENDBRANCH   2  13
BRANCH  10  24
ATOM     24  N   UNL     1       4.168  -0.379   0.890  1.00  0.00    -0.337 N 
ATOM     25  H   UNL     1       3.499  -0.584   1.666  1.00  0.00    +0.168 HD
BRANCH  24  26
ATOM     26  C   UNL     1       5.497   0.050   1.238  1.00  0.00    +0.078 A 
ATOM     27  C   UNL     1       6.012  -0.231   2.516  1.00  0.00    +0.166 A 
ATOM     28  C   UNL     1       6.277   0.795   0.335  1.00  0.00    +0.031 A 
ATOM     29  C   UNL     1       7.298   0.198   2.875  1.00  0.00    +0.097 A 
ATOM     30  C   UNL     1       7.557   1.223   0.693  1.00  0.00    +0.024 A 
ATOM     31  C   UNL     1       8.074   0.926   1.957  1.00  0.00    +0.062 A 
ATOM     32  F   UNL     1       5.268  -0.938   3.406  1.00  0.00    -0.203 F 
ATOM     33 Cl   UNL     1       7.917  -0.183   4.478  1.00  0.00    -0.079 Cl
ATOM     34 Cl   UNL     1       9.690   1.485   2.368  1.00  0.00    -0.083 Cl
ENDBRANCH  24  26
ENDBRANCH  10  24
TORSDOF 6
