REMARK SMILES CN(C)CC=CC(=O)Nc1cc2c(Nc3ccc(F)c(Cl)c3)ncnc2cc1OC1CCOC1
REMARK SMILES IDX 7 1 8 2 9 3 6 5 5 6 4 7 2 8 1 9 3 10 10 11 28 12 11 13 27 14
REMARK SMILES IDX 12 15 26 16 13 17 25 18 23 19 24 20 29 21 30 22 31 23 34 24
REMARK SMILES IDX 32 25 33 26 14 27 15 29 22 30 16 31 20 32 17 33 18 34 21 35
REMARK SMILES IDX 19 36
REMARK H PARENT 9 4 14 28
ROOT
ATOM      1  C   UNL     1      -2.010  -0.261   0.456  1.00  0.00    +0.248 C 
ATOM      2  O   UNL     1      -1.531  -1.229   1.109  1.00  0.00    -0.270 OA
ATOM      3  N   UNL     1      -1.220   0.392  -0.549  1.00  0.00    -0.319 N 
ATOM      4  H   UNL     1      -1.506   1.350  -0.857  1.00  0.00    +0.170 HD
ENDROOT
BRANCH   1   5
ATOM      5  C   UNL     1      -3.372   0.226   0.739  1.00  0.00    +0.068 C 
ATOM      6  C   UNL     1      -4.154  -0.332   1.670  1.00  0.00    -0.006 C 
BRANCH   6   7
ATOM      7  C   UNL     1      -5.540   0.191   1.958  1.00  0.00    +0.111 C 
BRANCH   7   8
ATOM      8  N   UNL     1      -5.582   1.162   3.074  1.00  0.00    -0.306 NA
ATOM      9  C   UNL     1      -5.132   0.570   4.345  1.00  0.00    +0.105 C 
ATOM     10  C   UNL     1      -4.837   2.394   2.774  1.00  0.00    +0.105 C 
ENDBRANCH   7   8
ENDBRANCH   6   7
ENDBRANCH   1   5
BRANCH   3  11
ATOM     11  C   UNL     1       0.040  -0.118  -1.013  1.00  0.00    +0.085 A 
ATOM     12  C   UNL     1       0.173  -1.459  -1.428  1.00  0.00    +0.145 A 
ATOM     13  C   UNL     1       1.136   0.752  -1.091  1.00  0.00    +0.044 A 
ATOM     14  C   UNL     1       1.427  -1.924  -1.864  1.00  0.00    +0.077 A 
ATOM     15  C   UNL     1       2.385   0.293  -1.544  1.00  0.00    +0.045 A 
ATOM     16  C   UNL     1       2.526  -1.062  -1.913  1.00  0.00    +0.080 A 
ATOM     17  C   UNL     1       3.526   1.121  -1.620  1.00  0.00    +0.141 A 
ATOM     18  N   UNL     1       3.733  -1.532  -2.323  1.00  0.00    -0.236 NA
ATOM     19  N   UNL     1       4.706   0.589  -2.040  1.00  0.00    -0.219 NA
ATOM     20  C   UNL     1       4.817  -0.719  -2.382  1.00  0.00    +0.224 A 
BRANCH  12  21
ATOM     21  O   UNL     1      -0.965  -2.284  -1.418  1.00  0.00    -0.486 OA
BRANCH  21  22
ATOM     22  C   UNL     1      -0.979  -3.687  -1.685  1.00  0.00    +0.201 C 
ATOM     23  C   UNL     1      -2.388  -4.197  -1.707  1.00  0.00    +0.076 C 
ATOM     24  C   UNL     1      -0.352  -4.489  -0.553  1.00  0.00    +0.205 C 
ATOM     25  C   UNL     1      -2.245  -5.599  -1.159  1.00  0.00    +0.164 C 
ATOM     26  O   UNL     1      -1.105  -5.660  -0.333  1.00  0.00    -0.377 OA
ENDBRANCH  21  22
ENDBRANCH  12  21
BRANCH  17  27
ATOM     27  N   UNL     1       3.456   2.526  -1.319  1.00  0.00    -0.340 N 
ATOM     28  H   UNL     1       2.615   3.059  -1.635  1.00  0.00    +0.168 HD
BRANCH  27  29
ATOM     29  C   UNL     1       4.551   3.270  -0.755  1.00  0.00    +0.041 A 
ATOM     30  C   UNL     1       5.509   2.651   0.071  1.00  0.00    +0.049 A 
ATOM     31  C   UNL     1       4.638   4.652  -0.985  1.00  0.00    +0.029 A 
ATOM     32  C   UNL     1       6.552   3.400   0.628  1.00  0.00    +0.078 A 
ATOM     33  C   UNL     1       5.680   5.398  -0.427  1.00  0.00    +0.043 A 
ATOM     34  C   UNL     1       6.639   4.774   0.376  1.00  0.00    +0.141 A 
ATOM     35 Cl   UNL     1       7.737   2.610   1.654  1.00  0.00    -0.081 Cl
ATOM     36  F   UNL     1       7.644   5.509   0.914  1.00  0.00    -0.205 F 
ENDBRANCH  27  29
ENDBRANCH  17  27
ENDBRANCH   3  11
TORSDOF 8
