REMARK SMILES C=CC(=O)Nc1cc(Nc2nccc(-c3cn(C)c4ccccc34)n2)c(OC)cc1N(C)CCN(C)C
REMARK SMILES IDX 8 1 26 2 29 3 30 4 6 5 7 6 9 7 10 9 14 10 25 11 13 12 12 13
REMARK SMILES IDX 11 14 15 15 17 16 16 17 19 18 20 19 24 20 21 21 23 22 22 23
REMARK SMILES IDX 18 24 27 25 28 26 5 27 3 28 4 29 2 31 1 32 31 33 32 34 33 35
REMARK SMILES IDX 34 36 35 37 36 38 37 39
REMARK H PARENT 9 8 5 30
ROOT
ATOM      1  C   UNL     1      -0.382   0.309   0.537  1.00  0.00    +0.086 A 
ATOM      2  C   UNL     1      -1.304   1.357   0.709  1.00  0.00    +0.144 A 
ATOM      3  C   UNL     1      -2.678   1.101   0.542  1.00  0.00    +0.076 A 
ATOM      4  C   UNL     1      -3.134  -0.177   0.199  1.00  0.00    +0.064 A 
ATOM      5  C   UNL     1      -2.217  -1.240   0.088  1.00  0.00    +0.067 A 
ATOM      6  C   UNL     1      -0.848  -0.986   0.258  1.00  0.00    +0.058 A 
ENDROOT
BRANCH   1   7
ATOM      7  N   UNL     1       1.027   0.565   0.675  1.00  0.00    -0.321 N 
ATOM      8  H   UNL     1       1.341   1.309   1.343  1.00  0.00    +0.170 HD
BRANCH   7   9
ATOM      9  C   UNL     1       2.029  -0.044  -0.153  1.00  0.00    +0.227 A 
ATOM     10  C   UNL     1       4.324  -0.476  -0.579  1.00  0.00    +0.078 A 
ATOM     11  N   UNL     1       3.341   0.070   0.185  1.00  0.00    -0.213 NA
ATOM     12  C   UNL     1       3.974  -1.170  -1.745  1.00  0.00    +0.049 A 
ATOM     13  C   UNL     1       2.628  -1.253  -2.094  1.00  0.00    +0.117 A 
ATOM     14  N   UNL     1       1.685  -0.687  -1.300  1.00  0.00    -0.221 NA
BRANCH  10  15
ATOM     15  C   UNL     1       5.739  -0.332  -0.173  1.00  0.00    +0.026 A 
ATOM     16  N   UNL     1       7.952  -0.730   0.013  1.00  0.00    -0.350 N 
ATOM     17  C   UNL     1       6.798  -1.161  -0.545  1.00  0.00    +0.096 A 
ATOM     18  C   UNL     1       7.646   0.373   0.723  1.00  0.00    +0.048 A 
ATOM     19  C   UNL     1       8.516   1.196   1.444  1.00  0.00    +0.027 A 
ATOM     20  C   UNL     1       6.300   0.645   0.639  1.00  0.00    +0.009 A 
ATOM     21  C   UNL     1       7.976   2.321   2.091  1.00  0.00    +0.002 A 
ATOM     22  C   UNL     1       5.742   1.763   1.267  1.00  0.00    +0.011 A 
ATOM     23  C   UNL     1       6.597   2.602   2.004  1.00  0.00    +0.001 A 
ATOM     24  C   UNL     1       9.275  -1.316  -0.188  1.00  0.00    +0.149 C 
ENDBRANCH  10  15
ENDBRANCH   7   9
ENDBRANCH   1   7
BRANCH   2  25
ATOM     25  O   UNL     1      -0.823   2.638   1.026  1.00  0.00    -0.494 OA
ATOM     26  C   UNL     1      -1.644   3.790   1.188  1.00  0.00    +0.278 C 
ENDBRANCH   2  25
BRANCH   5  27
ATOM     27  N   UNL     1      -2.672  -2.559  -0.258  1.00  0.00    -0.321 N 
ATOM     28  C   UNL     1      -2.196  -3.746   0.392  1.00  0.00    +0.247 C 
ATOM     29  O   UNL     1      -1.488  -3.661   1.433  1.00  0.00    -0.270 OA
ATOM     30  H   UNL     1      -3.448  -2.653  -0.951  1.00  0.00    +0.170 HD
BRANCH  28  31
ATOM     31  C   UNL     1      -2.580  -5.067  -0.137  1.00  0.00    +0.064 C 
ATOM     32  C   UNL     1      -2.223  -6.207   0.454  1.00  0.00    +0.014 C 
ENDBRANCH  28  31
ENDBRANCH   5  27
BRANCH   4  33
ATOM     33  N   UNL     1      -4.539  -0.394  -0.006  1.00  0.00    -0.372 N 
ATOM     34  C   UNL     1      -5.305  -1.131   1.000  1.00  0.00    +0.143 C 
BRANCH  33  35
ATOM     35  C   UNL     1      -5.117  -0.159  -1.335  1.00  0.00    +0.131 C 
BRANCH  35  36
ATOM     36  C   UNL     1      -5.426   1.329  -1.547  1.00  0.00    +0.105 C 
BRANCH  36  37
ATOM     37  N   UNL     1      -6.325   1.840  -0.488  1.00  0.00    -0.308 NA
ATOM     38  C   UNL     1      -6.149   3.292  -0.323  1.00  0.00    +0.105 C 
ATOM     39  C   UNL     1      -7.734   1.551  -0.807  1.00  0.00    +0.105 C 
ENDBRANCH  36  37
ENDBRANCH  35  36
ENDBRANCH  33  35
ENDBRANCH   4  33
TORSDOF 10
