REMARK SMILES COc1cc2c(Nc3ccc(Br)cc3F)ncnc2cc1OCC1CCN(C)CC1
REMARK SMILES IDX 21 1 3 2 4 3 5 4 19 5 20 6 18 7 17 8 16 9 6 10 22 11 23 12
REMARK SMILES IDX 24 13 27 14 26 15 29 16 25 17 30 18 28 19 2 20 1 21 7 22
REMARK SMILES IDX 8 24 14 25 9 26 13 27 10 28 11 29 15 30 12 31
REMARK H PARENT 7 23
ROOT
ATOM      1  C   UNL     1      -0.547  -0.573  -0.792  1.00  0.00    +0.163 A 
ATOM      2  C   UNL     1       0.353   0.213  -1.527  1.00  0.00    +0.161 A 
ATOM      3  C   UNL     1       1.664   0.409  -1.050  1.00  0.00    +0.064 A 
ATOM      4  C   UNL     1       2.078  -0.171   0.164  1.00  0.00    +0.047 A 
ATOM      5  C   UNL     1       1.172  -0.978   0.883  1.00  0.00    +0.080 A 
ATOM      6  C   UNL     1      -0.128  -1.173   0.410  1.00  0.00    +0.079 A 
ATOM      7  N   UNL     1       1.564  -1.577   2.037  1.00  0.00    -0.236 NA
ATOM      8  C   UNL     1       2.821  -1.413   2.519  1.00  0.00    +0.224 A 
ATOM      9  N   UNL     1       3.709  -0.633   1.852  1.00  0.00    -0.219 NA
ATOM     10  C   UNL     1       3.379  -0.007   0.690  1.00  0.00    +0.141 A 
ENDROOT
BRANCH   1  11
ATOM     11  O   UNL     1      -1.847  -0.740  -1.303  1.00  0.00    -0.489 OA
BRANCH  11  12
ATOM     12  C   UNL     1      -2.932  -1.382  -0.631  1.00  0.00    +0.233 C 
BRANCH  12  13
ATOM     13  C   UNL     1      -3.492  -0.495   0.499  1.00  0.00    +0.029 C 
ATOM     14  N   UNL     1      -6.254   0.525   1.154  1.00  0.00    -0.306 NA
ATOM     15  C   UNL     1      -5.617   0.743  -0.167  1.00  0.00    +0.084 C 
ATOM     16  C   UNL     1      -5.474  -0.341   2.077  1.00  0.00    +0.084 C 
ATOM     17  C   UNL     1      -4.090   0.826  -0.051  1.00  0.00    +0.022 C 
ATOM     18  C   UNL     1      -4.521  -1.289   1.337  1.00  0.00    +0.022 C 
ATOM     19  C   UNL     1      -7.626   0.024   0.980  1.00  0.00    +0.105 C 
ENDBRANCH  12  13
ENDBRANCH  11  12
ENDBRANCH   1  11
BRANCH   2  20
ATOM     20  O   UNL     1      -0.095   0.783  -2.729  1.00  0.00    -0.493 OA
ATOM     21  C   UNL     1       0.697   1.607  -3.579  1.00  0.00    +0.278 C 
ENDBRANCH   2  20
BRANCH  10  22
ATOM     22  N   UNL     1       4.346   0.849   0.056  1.00  0.00    -0.337 N 
ATOM     23  H   UNL     1       4.015   1.750  -0.356  1.00  0.00    +0.168 HD
BRANCH  22  24
ATOM     24  C   UNL     1       5.764   0.657   0.187  1.00  0.00    +0.076 A 
ATOM     25  C   UNL     1       6.339  -0.629   0.157  1.00  0.00    +0.147 A 
ATOM     26  C   UNL     1       6.602   1.778   0.298  1.00  0.00    +0.030 A 
ATOM     27  C   UNL     1       7.724  -0.782   0.274  1.00  0.00    +0.057 A 
ATOM     28  C   UNL     1       7.986   1.619   0.415  1.00  0.00    +0.018 A 
ATOM     29  C   UNL     1       8.547   0.340   0.408  1.00  0.00    +0.021 A 
ATOM     30  F   UNL     1       5.569  -1.732  -0.028  1.00  0.00    -0.205 F 
ATOM     31 Br   UNL     1      10.439   0.125   0.565  1.00  0.00    -0.051 Br
ENDBRANCH  22  24
ENDBRANCH  10  22
TORSDOF 6
